! Touchstone file exported from HFSS 2019.3.0
!        File:           D:/5ELx2 NearField.aedt
!        Generated:      9:03:55 AM  Dec 09, 2019
!        Design:         HFSSDesign1
!        Project:        5ELx2 NearField
!        Setup:          1_to_6G
!        Solution:       Disc
!
# GHZ S RI R 50.000000
! Modal data exported
! Port[1] = 1:1
! Port[2] = 2:1
! Port[3] = 3:1
! Port[4] = 4:1
! Port[5] = 5:1
! Port[6] = 6:1
! Port[7] = 7:1
! Port[8] = 8:1
! Port[9] = 9:1
! Port[10] = 10:1
1                              0.0291231986125728 -0.116974759829685 -0.0278148627685841 0.0192037438144716 0.0281621153526369 0.0180566942435123 0.0280604401942296 0.018258504640169 
                -0.0282155635453284 0.0202190081195382 -0.073523833138711 -0.133817397707622 0.0199634102988589 0.0338677531417725 -0.00490105674207576 0.0187284895462044 
                -0.00563616449475026 0.0184597626550525 0.0151227159703711 0.0349926699842342 
                -0.0278142149732187 0.0192010809712459 0.0499838620781935 -0.1281401284673 -0.0312263004350954 0.0192269577878627 0.0247494503563565 0.0171055173593917 
                0.018470407885236 0.0202025861370893 0.0204118533276508 0.0329957599133587 -0.0128232928234508 0.00328016071493493 -0.00266674662525153 -0.00272393002182703 
                0.00373654800034459 -0.00652740831694158 0.00773472736215415 -0.0183873503482537 
                0.0281651973233009 0.0180584159487523 -0.031228189095833 0.0192301493918841 0.0538448670467785 -0.114173034605605 -0.0285224798669281 0.0187035941749213 
                0.0253430819556682 0.0172476269833685 -0.00430952282548536 0.0192395885992151 -0.00245640071952644 -0.0026975320935149 -0.000739681253136458 -0.00207140488863655 
                -0.00258835549865038 -0.000841942023303415 0.00336749207665371 -0.0065686806984943 
                0.0280635686814515 0.018259908050143 0.0247488297981495 0.0171090714943813 -0.0285231963075199 0.0187029753269945 0.0547942568945131 -0.112666732753139 
                -0.0317742099800278 0.018142502725271 -0.00571013207369585 0.0190283525124511 0.00375528685714386 -0.00685252573191576 -0.00238176783724362 -0.000509247926228826 
                -0.000413794442363137 -0.00177272716066979 -0.0019429801753618 -0.00257461294659639 
                -0.0282160171067241 0.0202167592440365 0.0185122809794854 0.0201998155317699 0.0253432259615354 0.0172454176431117 -0.0317736121819752 0.0181405645783302 
                0.0470805824016089 -0.128085121115593 0.0157623664046138 0.0363888829398217 0.00819695374527324 -0.0180145389265975 0.00351462704441857 -0.00620884181198063 
                -0.00156343815223849 -0.00213179480288602 -0.0114024226949266 0.00355768205164278 
                -0.0735240723162406 -0.13381770317435 0.0204109943184797 0.0329965150416475 -0.00431126592445855 0.0192401080618335 -0.00571279681730227 0.0190294031583458 
                0.01576038916847 0.0363883095085699 0.0288951872880614 -0.114487890561593 -0.0276260034815343 0.0203892418158471 0.0282621628099075 0.0178836080044581 
                0.0277286343080376 0.01878931365085 -0.0286778681002778 0.0188607978373033 
                0.019963984015244 0.0338670711327844 -0.0128226425465458 0.00328045894879156 -0.00245726852082868 -0.00269597546207934 0.00375449116769626 -0.00685288197469999 
                0.00819647006359742 -0.0180144190286137 -0.0276250666938994 0.020386313803975 0.0476358117826216 -0.128389627707464 -0.0320966566619646 0.0186844944129239 
                0.0237553769795367 0.0177579337107017 0.0181385796577283 0.0203427174524168 
                -0.00489981690776899 0.0187278742083774 -0.00266585635953703 -0.00272578207052613 -0.000668709401244128 -0.0022383233564582 -0.00242701206711123 -0.000447993772048051 
                0.003515063834421 -0.00620806555463926 0.0282651483189214 0.0178856003467979 -0.0320985526742534 0.0186868386033112 0.052554469314053 -0.117196214302687 
                -0.0296938397780734 0.0192195550289242 0.024108855539908 0.0173887041644473 
                -0.00563336922029161 0.0184586915520525 0.00373726743940575 -0.00652709029542929 -0.0024174412219996 -0.000753591365779036 -0.000377786466220273 -0.00173543186562513 
                -0.00156322316537626 -0.0021329505759697 0.0277321663476842 0.0187909273739089 0.023755443854253 0.0177613457346425 -0.0296943230887616 0.0192195131110173 
                0.0565569879214433 -0.116771496179739 -0.0318758858904696 0.0182642188830698 
                0.0151245101299489 0.0349932464353684 0.00773499906405171 -0.018386942424774 0.00336725645060635 -0.00656983963049362 -0.00194274401743615 -0.00257313142845174 
                -0.0112441419549718 0.00356182385224427 -0.0286777570981606 0.0188582411952593 0.0181389529390909 0.0203426619520404 0.0241101284558764 0.0173861958296606 
                -0.0318746419689182 0.0182616115742597 0.047299989705675 -0.127585357675768 

1.05                           0.0108801205780202 0.0105055882767845 0.000703026443907947 0.0406312165496093 0.0243869581123774 -0.0197383689734442 0.0243529748527077 -0.0202130544910998 
                0.00255393725212399 0.0416367159165149 -0.120537745102244 0.0619539006897758 0.0302573575672421 -0.0238064200813714 0.0246417020229512 -0.0109940939347886 
                0.0236426618033543 -0.0105608574815005 0.0325511849717821 -0.0187970381558906 
                0.000700945124614195 0.0406305366906805 -0.00770961160251977 0.00553648629928265 0.00411389167856822 0.0441605152330094 0.0241262559842695 -0.019547180536206 
                0.0289032881473085 -0.017030511147825 0.0295329629321756 -0.0233331100597074 -3.9261203693112E-05 0.00404990465950878 -0.00262990306539092 0.00424335767267322 
                -0.00920702914807434 0.00483019608938965 -0.0139611897176437 0.000376039705249745 
                0.0243877471144917 -0.0197402526947563 0.00411541869032854 0.0441631741819401 0.00499535243165374 -0.000867408677918486 0.00375201217304877 0.0414072682757613 
                0.0238993374099232 -0.0195549056004311 0.0241330378304696 -0.0114789214811615 -0.00296871566841665 0.00415156448278228 -0.00101139700053297 0.00385082018906287 
                0.00110160307492545 0.00289187910029182 -0.00903682833481751 0.00469438033148444 
                0.0243533958330248 -0.0202152024389325 0.024129402197619 -0.019548385153808 0.00375095588950555 0.0414082832540804 0.00753040862697881 -0.000375846772409658 
                0.00298347795128942 0.0446581382080048 0.0235490472696784 -0.0110614539042066 -0.00919709479340196 0.00500975605183753 0.00125232425096889 0.00248970670910328 
                -0.0010643368599714 0.00349480332843394 -0.00288607920126721 0.00336458552890343 
                0.00255218452872571 0.0416366107933126 0.0289620570541226 -0.0172599210532985 0.0238974141495556 -0.0195541233132551 0.00298249438964362 0.0446566150141649 
                -0.0100078027323682 0.00593726149564755 0.0332256229273728 -0.0194631732185493 -0.0140052224238285 0.000234993678932812 -0.00920698004432794 0.00460970797574595 
                -0.00297430273723648 0.00287414756074613 0.000681550988800087 0.00289578725674793 
                -0.120537830129911 0.0619542846922374 0.0295348237839898 -0.0233315067582284 0.024134670530059 -0.0114779570768909 0.0235521811062613 -0.0110601153637616 
                0.0332259069467732 -0.0194604508751561 0.013090713939956 0.0134013329971385 0.00197638183338028 0.0398632982657156 0.0241717634552831 -0.0199057416040595 
                0.0251607077446185 -0.0201670160172237 0.00153380034282236 0.042299189370289 
                0.0302552151674006 -0.0238080190173708 -3.95325755285553E-05 0.00404907219710675 -0.00296692661530612 0.00415128269035194 -0.00919680337265401 0.00501008585155673 
                -0.0140052480392226 0.000235882344283976 0.00197350583679271 0.0398622903461107 -0.0101002268553685 0.00526880407530373 0.00323704996116136 0.0447997353157759 
                0.0244679002504476 -0.0187071286050807 0.0292231911925525 -0.0170065205245999 
                0.024640177268322 -0.0109943895741376 -0.00263189488710776 0.00424375060574482 -0.00106518217853656 0.00402914030508635 0.00113356388625873 0.00240994581743108 
                -0.00920671031554013 0.00460973026226278 0.0241725653038611 -0.0199079854317039 0.00323761359240173 0.0448020118942677 0.00350630845428941 -0.00193440766643962 
                0.00389016476781319 0.0424577282957386 0.0247421889497508 -0.0188316488604121 
                0.0236399823804364 -0.0105617988030703 -0.00920742656279446 0.00482998347672854 0.00122244459508783 0.00287290181171315 -0.00101532497286497 0.00341924762644755 
                -0.00297526582839831 0.0028751618883917 0.025160997284331 -0.0201695901632502 0.0244707554290643 -0.0187089167315632 0.003889864104893 0.0424593475600993 
                0.00655828149773916 -0.00360251127086977 0.00321652120620596 0.0442260133613457 
                0.0325505488569643 -0.0187998969643474 -0.0139608904702324 0.000375477925577814 -0.00903722948787138 0.00469452969315264 -0.0028850123491076 0.00336322461062089 
                0.000681724795470193 0.00289559374612914 0.00153194418301961 0.0422982381225214 0.0292228635311841 -0.0170068629994507 0.0247402073537103 -0.018831145282921 
                0.00321534992583086 0.0442242479938147 -0.00798261166698308 0.00652155368851905 

1.1                            0.0830471575930523 0.0610843036023566 0.0419180755134066 0.020021443894364 0.000760864121016321 -0.0271999531817435 -0.000267502023466418 -0.027181485355354 
                0.0411894817936075 0.018382182882585 0.0473123401386006 0.121174556020728 -0.0253235081758701 -0.0261386871904415 -0.0227715399573313 -0.00775359735491632 
                -0.0216835238187072 -0.00696697746572091 -0.0210963039562802 -0.0310703942091105 
                0.0419190224812051 0.0200235274901587 0.0881176922676634 0.0931160549809735 0.0401599854314451 0.00937416617432811 -0.00269077047804071 -0.0272765344445028 
                -0.00252457267021466 -0.0309085271057098 -0.024996369045343 -0.0265582092411321 0.0113995786905147 0.00325346872383167 0.00548617305467369 -0.000896476962050184 
                0.00943847921304761 -0.000151692265484339 -0.00426733432192994 0.0126084322534838 
                0.000760511999754221 -0.0272008999151526 0.0401628222590943 0.00937252774221229 0.0841682192385963 0.0820423651536724 0.0388224593381141 0.00929705962144645 
                -0.0022319618097658 -0.0274522150496373 -0.0227386307391543 -0.00732263169411938 0.00553649898867625 -0.000816823948337101 0.000259154922602796 -0.00478114239554419 
                -0.00126522300945515 -0.00402966924219596 0.00955755127131968 0.000169261513352463 
                -0.00026740838841433 -0.0271821573480099 -0.00269177576837834 -0.0272785210079618 0.0388240744607479 0.00929813619115256 0.0868060175071177 0.0807016363994623 
                0.0410236504155835 0.0102576008774836 -0.0215301235614923 -0.00691826644231719 0.00927098155338396 -0.000637647474342445 -0.00149552828544622 -0.00375479601211813 
                7.75867690358001E-05 -0.00470074406126211 0.00518489824023263 -3.00901679363679E-06 
                0.0411904540455666 0.018384691419404 -0.00252487561388857 -0.030908638954553 -0.00223124709331224 -0.027450654911311 0.0410220426169585 0.0102589838447787 
                0.0868575056698461 0.0940485076087932 -0.0215680074943141 -0.0317065378976884 -0.00482865819475723 0.0125215892777487 0.00952489996980843 0.000278817730443211 
                0.00502237719980634 0.000544205806519213 0.00919915411156176 0.00301978769619558 
                0.047312447208771 0.121174275732058 -0.0249968438986299 -0.0265608905638615 -0.0227397437815932 -0.00732401638633377 -0.0215322192110748 -0.00692097581571136 
                -0.0215663892981747 -0.0317077568146395 0.0868130093327024 0.0609860571607916 0.04099369315286 0.0190818880973687 0.000511137549725747 -0.0270448413198312 
                -0.00015944359660023 -0.0273381462718317 0.0415815456618481 0.0187080505340821 
                -0.0253226733844353 -0.0261357731550343 0.0113992362762803 0.00325425146315932 0.00553366661498108 -0.000817795741432646 0.00916521548310846 -0.000605309470419961 
                -0.00482777234902298 0.012520894752606 0.0409951611369019 0.0190844571709552 0.0867597719072852 0.0937630154821306 0.04070920105716 0.0102705005707638 
                -0.00168760860787619 -0.0281927381266527 -0.00241323417009452 -0.0314182040108405 
                -0.0227701544498915 -0.00775233295719391 0.00548915332825128 -0.000895287508185501 0.00030931206789254 -0.00484380849879698 -0.00151859232589266 -0.00369723411432857 
                0.00952487898165469 0.000278347313640516 0.000510199336024428 -0.0270450065624785 0.0407119882736961 0.0102701508801857 0.0838981216627367 0.0823956486709287 
                0.040058504022878 0.00969066759878633 -0.00191988823430374 -0.0283230698596265 
                -0.0216817916840472 -0.00696448172114723 0.00943907801217185 -0.000151504511407491 -0.00126981867329013 -0.00404474559780136 -1.80752833706683E-05 -0.00468218543588214 
                0.00502457312825844 0.000543827679386969 -0.00015972092832558 -0.027338404674149 -0.00168914481777339 -0.0281943582891417 0.0400602568446114 0.00969049967889203 
                0.0847787541266427 0.0791834093044643 0.0400761107424151 0.0108154210378787 
                -0.0210973811658655 -0.031068768923572 -0.00426802833443357 0.01260835467827 0.00955779939261701 0.00016978808513725 0.00518243730692648 -2.43923349079383E-06 
                0.00919866394058461 0.0030198212588325 0.0415814999104595 0.018710668978543 -0.00241330973225415 -0.031417526810582 -0.00191953739254676 -0.0283216756644141 
                0.0400743822520992 0.0108164554555905 0.0889287453314299 0.0921547783330193 

1.15                           0.206973933538547 0.0562305271817996 0.0177200212249787 -0.0481537421850647 -0.0396768964700685 -0.0222721589473114 -0.0395803494142814 -0.0213505747284264 
                0.0179847689607039 -0.0481142855458732 0.110673238905568 -0.0446881384785859 -0.019454420799841 0.0322086108476594 0.00814359117863503 0.0134735893245363 
                0.00816697905876403 0.0129389396653164 -0.0251731401828676 0.0315174914072731 
                0.0177191129980135 -0.0481542245396656 0.228150108520291 0.0336827278773633 0.0139699798956972 -0.0366591052214177 -0.0339948571682238 -0.0190789550015014 
                -0.0332979742703807 -0.0191452752154006 -0.0198167151907624 0.0325477483029984 -0.0094434476922862 -0.0120310064126537 -0.00427812030443757 -0.00248262726877306 
                -0.00578730898752755 -0.00344395493197598 0.0202797632866572 -0.00751145046069361 
                -0.0396777441576719 -0.022270196215479 0.0139707378990309 -0.0366617422644351 0.218192765492911 0.0273096519357988 0.0101863208993967 -0.0349559073003738 
                -0.0338723229823865 -0.019534975563197 0.00817419227943453 0.0133227610898486 -0.00420384839214445 -0.00269685397313958 0.00156895738675076 0.00478554854104923 
                0.00209220585267918 0.00444301594655802 -0.00574944350988171 -0.00335134256023409 
                -0.0395813416105104 -0.0213486147497225 -0.0339959283589323 -0.019077671759237 0.0101869471989825 -0.0349575297186044 0.21935868732294 0.0260785965949261 
                0.0148580183483918 -0.0365934303900343 0.0079851506102595 0.0130452106831475 -0.00553273341727622 -0.00306312143688528 0.00237922760230831 0.00417070948956587 
                0.0012776887747534 0.00488561900948024 -0.00390376752912499 -0.00275291945387858 
                0.0179859053942818 -0.0481152052003925 -0.033298387092631 -0.0191450331241386 -0.0338715501573293 -0.0195361880232024 0.0148563337416716 -0.0365915491178242 
                0.226744015313228 0.0358744074998902 -0.025737365781245 0.032498179816375 0.0208340684560112 -0.00725401834768326 -0.00575736220979974 -0.0034007752388642 
                -0.00338172877614031 -0.00306235000404673 -0.00766704549668692 -0.00981799718089362 
                0.110633859805995 -0.0444502879443 -0.0198187620598632 0.0325497916070882 0.0081735847007165 0.0133248355083192 0.00798449461170978 0.0130489682389384 
                -0.025738611212052 0.0324977336918942 0.209672786739729 0.0549971944754734 0.0171923025742254 -0.0472653755772956 -0.0394686969990372 -0.0221536078790696 
                -0.0391416304940954 -0.0215745752082647 0.0179408273023462 -0.0483429076637162 
                -0.019452344388311 0.0322063264965532 -0.00944258053304255 -0.0120313391976385 -0.00420197022409959 -0.00269538116260125 -0.00553183504468652 -0.00306356010763082 
                0.0208336001586337 -0.00725402741508438 0.0171918858780673 -0.0472659543103216 0.227095746884554 0.0336974924091034 0.0153712364861561 -0.0369713896854208 
                -0.0347513418029453 -0.0201211622916009 -0.0339715671415076 -0.0191685225430359 
                0.00814388180270613 0.0134713514330609 -0.00427970522037289 -0.00248396941926978 0.00149101563722269 0.00476000294796687 0.00248917217667466 0.00434184780987935 
                -0.00575837764339282 -0.00340022543642536 -0.039468843746871 -0.0221514462384401 0.015372588159381 -0.0369743725666678 0.219357975172508 0.0256762519017882 
                0.0106146106403974 -0.0364332050985077 -0.0349637378730732 -0.0201871832133748 
                0.0081674254640983 0.0129354151753019 -0.00578893604122774 -0.00344415247210566 0.00185664058580725 0.00442496294048142 0.00139621918840355 0.00493585174259755 
                -0.00338349167511118 -0.00306201561851337 -0.0391422188056639 -0.021572453593274 -0.0347522995002108 -0.0201195757259585 0.0106141163733316 -0.0364349763704233 
                0.217665901060903 0.0256977412681464 0.0150567072811239 -0.0359102878619888 
                -0.0251718192262708 0.0315183982369273 0.0202803045792681 -0.00751137145816166 -0.00574867675830555 -0.00335232496156292 -0.00390131717455693 -0.00275307501115681 
                -0.0076665281634679 -0.00981774516353593 0.0179420052479938 -0.0483431543191397 -0.0339713461793906 -0.0191683717264018 -0.0349627053647788 -0.0201876095579559 
                0.0150548672676512 -0.0359081612104576 0.225902031487131 0.0332355785101901 

1.2                            0.339511089187908 -0.14662952867898 -0.000459772638611698 0.00797360828555701 0.021111184378631 0.0425364081887841 0.0215258156191348 0.0424036975383973 
                -0.00115269679556389 0.00832991217215345 -0.0117541498699334 -0.0853332440448273 0.0384012988900184 0.00774268295033499 0.0089335008381712 -0.00625043812816183 
                0.00793743285718276 -0.00703256304128809 0.0383822218588345 0.010862431150208 
                -0.000458248198529872 0.00797351178413639 0.314882683364635 -0.141784967247102 0.00105102455250854 -0.0017296352794865 0.016375118276522 0.0377001317761196 
                0.0106721514061497 0.0388347387864827 0.0386477595225204 0.00744677923846625 0.00153008190864795 0.0127982555551863 0.00567741280677487 0.00616982373228171 
                0.0040339485185947 0.00455095019598413 -0.0137574413101937 0.000355735776484395 
                0.0211121507308763 0.0425366550751671 0.0010475164177706 -0.00173203168246927 0.305702817475125 -0.129013067362382 0.00474314280479646 -0.000824316237528833 
                0.0163846804805549 0.0379309797091924 0.00857151286026946 -0.00659041497880102 0.00562125669675213 0.00623895829365408 0.00119643774215886 -0.00329863396173579 
                0.00207966852146285 -0.0025564019339471 0.00356782799405569 0.0046264479043338 
                0.021527187363521 0.0424039863377265 0.0163759920334619 0.0377015448213751 0.00474211012256561 -0.000824143422323698 0.305417827063078 -0.131385806929768 
                -0.000223245236552153 -0.00317172773678187 0.0082919579489736 -0.00669258834957689 0.00393626488282214 0.0043728122688255 0.00163102407204205 -0.00227138367484888 
                0.00124530688369704 -0.00343080271756248 0.00456385790482519 0.00652104030450962 
                -0.00115277583153667 0.00832868184415486 0.0106728262176909 0.0388349601483979 0.0163833542446551 0.0379302621337154 -0.00021973922432879 -0.0031697291631065 
                0.314001652581659 -0.142223380912856 0.0391200248376518 0.0110341992897124 -0.0137705047651112 -0.000144098759455079 0.00360928351234373 0.00467930462553244 
                0.00425140436345588 0.00633167756176674 -0.000163758156899047 0.011503106235482 
                -0.0116936064718021 -0.0854964461297541 0.0386493458752655 0.00744670983285752 0.0085722934708428 -0.0065924152967766 0.00829320264617976 -0.00669527212706031 
                0.0391200432510295 0.0110347908155506 0.340215073095622 -0.148282426262117 -0.000296849772347996 0.00762857086305533 0.0214747221463261 0.0429816744093772 
                0.0207651076512733 0.0427905064519645 -0.00158647647169969 0.00761102224615171 
                0.0383994861833539 0.00774223087062202 0.00152944528298111 0.0127978906657844 0.00562179865671592 0.00623742401420389 0.00393486453679086 0.00437398722482088 
                -0.0137707284480084 -0.000144338218841051 -0.000296000578248017 0.00762777067573526 0.312560531071574 -0.142011029022802 0.00017006661323764 -0.00279756436045432 
                0.0155663759769924 0.0392001164804674 0.0108021953947628 0.0383945519948618 
                0.00893274724746713 -0.00624802143706276 0.00567633261975095 0.00617099744056473 0.00116843550288767 -0.00331264647378104 0.00158795044428781 -0.00211859412033005 
                0.00361049769370409 0.00467860957979298 0.0214754353388265 0.0429816394684015 0.00016588255848689 -0.00280004282956585 0.303714566121841 -0.132130369685105 
                0.00345727855593065 -0.000125624242964799 0.016040228240927 0.039209599799313 
                0.00793597360657113 -0.0070300525341128 0.00403556681516631 0.00455041307066405 0.00207983995685855 -0.00255676567004822 0.00124499374636841 -0.00343085808734095 
                0.00410318543274178 0.00629247811413724 0.0207663479947639 0.0427904634984355 0.015567652948901 0.0392014889729307 0.00345639570934623 -0.000124836846324166 
                0.303910326336176 -0.130587366918279 0.000416499342755975 -0.00364013047288714 
                0.0383821306105328 0.0108615643418949 -0.0139633793438134 0.000254346298812824 0.00356627631524862 0.00462771398179639 0.0045637687148991 0.00652041831363184 
                -0.000163771830812342 0.0115022349106334 -0.00158600656997956 0.00760930617286714 0.0108019857992815 0.0383941001070479 0.0160392755960637 0.0392083217785456 
                0.000420244601926596 -0.00363804136634761 0.313023738237595 -0.143518723286221 

1.25                           0.0794643438649242 -0.362812585908498 0.00467766159494089 0.00715025300618493 0.0118500507300828 -0.00727071589781251 0.0118320766503039 -0.00801910945348761 
                0.00499545221493218 0.00703671897507949 -0.0857332892443272 -0.00816390980318094 -0.00559609966026507 -0.0367555570277012 -0.00900940598156406 -0.00280552099588017 
                -0.0089628474317514 -0.00261638116819572 -0.00306445762967278 -0.036708479933355 
                0.00467747958166294 0.00714940431955238 0.115640597550244 -0.356737173257204 0.00214992573056151 0.0179002997709768 0.0140650793000279 -0.00619023217591893 
                0.0230771495718315 -0.00251822794369255 -0.00612236089175168 -0.0364386946526125 0.00992490902398013 -0.00780494271287644 -0.00208814653426225 -0.00601319475616119 
                0.000579973138867701 -0.00380381259721016 0.00741597094781851 0.00502321892394086 
                0.011850276689541 -0.0072713907262287 0.00214754741900255 0.0179044406542897 0.117169899936479 -0.348601371296191 0.00241032695006613 0.0173776988923326 
                0.0140670325712768 -0.0061839046771215 -0.00874499978940934 -0.00243436572715654 -0.00194673035798023 -0.00603825983530609 -0.00213568479019659 0.00349982985820042 
                -0.00173844503919672 0.00141079589738492 0.000423213984308549 -0.00398119849149864 
                0.0118318613444082 -0.00802012845977315 0.0140649948297746 -0.0061917024148953 0.00241046735869399 0.0173783708226303 0.117307348856798 -0.349704572696889 
                0.00190915376655593 0.0185969922395426 -0.00920789351346768 -0.00296325670612294 0.000809718597790144 -0.00378882197787596 -0.00165542983098095 0.00127078580220299 
                -0.00219770967822704 0.00342969130400673 -0.00132793342203721 -0.00610173906330903 
                0.00499387045576261 0.00703665655617948 0.0230770325541825 -0.00251883807685562 0.0140676250080922 -0.00618240168735368 0.00191082196082336 0.0185934396055405 
                0.112617914402759 -0.355323758501889 -0.00310747166370246 -0.0376249868975167 0.0071951053420304 0.00528524420344026 0.000640276247592605 -0.00379713877763271 
                -0.00120692168957471 -0.00587008148967915 0.0103253145133401 -0.00705747102220609 
                -0.0856959065041987 -0.00794588298555751 -0.00612211488496182 -0.036437745422057 -0.00874564505660388 -0.0024341440809322 -0.00920904631441487 -0.00296300222308603 
                -0.00310747926882993 -0.0376233536274118 0.0808212989624768 -0.36312716356015 0.00418832815085554 0.00760068944394543 0.011599416841423 -0.00760701225922323 
                0.0124599273955985 -0.00760083092099221 0.00448020558096151 0.00805315933623323 
                -0.00559679524627435 -0.0367557513296249 0.00992509646851183 -0.00780423964122465 -0.00194775588949851 -0.00603713836506415 0.000811661737071732 -0.00378960765873232 
                0.0071950758939347 0.00528561224395837 0.00418747841343144 0.00760069299913291 0.113092523017136 -0.354900457408243 0.00130612457756181 0.0185055748414961 
                0.015046130555763 -0.00601077676507488 0.0223055578117465 -0.00277130253037262 
                -0.0090084783388016 -0.00280591924812874 -0.00208672453230938 -0.00601410064268903 -0.00213803943144779 0.00348382560621842 -0.00165490784193018 0.00128234578017855 
                0.000638710558915164 -0.00379683997725626 0.0115994501161382 -0.00760759452200631 0.00130380597674699 0.0185095313146795 0.111715703281672 -0.34905925384742 
                0.00269309970208372 0.018174447204874 0.0153231972309951 -0.00609210599690025 
                -0.00896142705164384 -0.0026162708975568 0.00057795822919876 -0.00380378959942446 -0.00187167921898897 0.00149277763623044 -0.00219744948334501 0.00342986908063241 
                -0.00120677463639903 -0.00587098625823374 0.0124598497924739 -0.00760145862963911 0.0150459485145932 -0.00601267839768611 0.00269375545810543 0.0181752806883755 
                0.115497172963708 -0.348497520628219 0.00140953345467877 0.0186514423550895 
                -0.00306459335523927 -0.0367099419352867 0.00741611986806574 0.00502360295394703 0.000425462549759796 -0.00398176380920081 -0.0013283751979714 -0.00610033015059761 
                0.0103246799224961 -0.00705676966136245 0.00447867912641175 0.00805252395391197 0.0223054695019618 -0.00277100576968924 0.0153230079433996 -0.0060907626785388 
                0.00141140952684683 0.0186479052209439 0.112235210464248 -0.354744104280648 

1.3                            -0.1430215346181 -0.2643313896141 0.0299083306582432 0.00290055181975725 -0.000126709491859852 -0.0053085616166609 -0.000355339027960985 -0.00486263201832811 
                0.030143023685229 0.00388576267267757 -0.0221999475901374 0.0559190325237038 -0.0230289806681385 0.0190089229885124 0.00197498034474867 0.00595625443719204 
                0.00129994371721412 0.00573667402218768 -0.0232422063622673 0.0166024228277367 
                0.0299083674168257 0.00289938460423726 -0.158389545172934 -0.288735747505539 0.0344119365858901 -0.00286410547897007 -0.00365278694903898 -0.00194747922357374 
                -0.00603139227252423 -0.00628733553000891 -0.0223152150387867 0.0188756369990188 -0.0122275707882291 0.00444559450025861 0.000328335230649842 0.0052957114449291 
                -0.00130670438830963 0.00178419400526351 -0.00207315636071588 -0.00249688972290835 
                -0.000127259216933972 -0.00531079051064031 0.0344168571099283 -0.00286277045775714 -0.152088577923552 -0.287097609367027 0.0348686701647942 -0.00497176348434128 
                -0.00325402377999653 -0.00175345480393317 0.00183355749784506 0.00565142374669157 0.000151429373898172 0.00535281968549048 0.00349297593797378 -0.00309456758201517 
                0.00160835257374803 -0.000329121006164583 -0.00105684009272603 0.0021633199874645 
                -0.000355907508497006 -0.00486400876398464 -0.00365259136229096 -0.00194716702512306 0.0348689725608496 -0.00497187736017078 -0.151251951738952 -0.288546834637626 
                0.0345826313059149 -0.00251273334195422 0.00154755362930846 0.00630898774193164 -0.00150055499060664 0.00190833113235422 0.00155684773017788 -0.000191016271865529 
                0.00350945600329959 -0.00323316370556664 -0.000343337042886301 0.00507546882232167 
                0.0301441813213778 0.00388549985711312 -0.00618019437250872 -0.00622257648174185 -0.00325433927104937 -0.00175420994157185 0.0345785464173411 -0.00251348617707228 
                -0.16101244113315 -0.286038190908414 -0.0235891747434449 0.0170355967930495 -0.00209916613537282 -0.00222917687052075 -0.000855329542474661 0.00193712537911313 
                -1.74348037250355E-05 0.00483055795560743 -0.0128054613861181 0.00368000243614382 
                -0.0221142086264971 0.0560463705724544 -0.0223152148406466 0.0188744167959912 0.00183488856417072 0.00565306478705673 0.00154914831984587 0.00631074612743737 