! Touchstone file exported from HFSS 2019.3.0
!        File:           D:/5ELx2 NearField.aedt
!        Generated:      9:03:23 AM  Dec 09, 2019
!        Design:         HFSSDesign1
!        Project:        5ELx2 NearField
!        Setup:          500Mto1G
!        Solution:       Sweep
!
# GHZ S RI R 50.000000
! Modal data exported
! Port[1] = 1:1
! Port[2] = 2:1
! Port[3] = 3:1
! Port[4] = 4:1
! Port[5] = 5:1
! Port[6] = 6:1
! Port[7] = 7:1
! Port[8] = 8:1
! Port[9] = 9:1
! Port[10] = 10:1
0.5                            0.0455496653456676 0.231770776080156 -0.0398750928521349 0.0182327047762766 -0.012515796071095 -0.0273653317371483 -0.0106916519286286 -0.0274645872071413 
                -0.0434365871299868 0.0158265611668573 0.141414742455712 -0.040297052509705 -0.00257416750026324 -0.0771228558373966 -0.0158429327475907 0.0255505449429172 
                -0.0156295645371903 0.02418008543948 -0.00122785117192581 -0.0772775721539313 
                -0.0398742248273379 0.0182275330669682 0.0487058349962423 0.233973640291065 -0.0498533490791323 0.0150216747303372 -0.00866434119022611 -0.0182229842680992 
                -0.00957065982556622 -0.0220819708681144 -0.00328631959179756 -0.0763009497904903 -0.0343118260969294 0.000872325992858521 0.01110583052052 0.0128537507145087 
                0.0111648872814449 0.0153247470585994 -0.0458934314378527 -0.0223384881190408 
                -0.0125227746102267 -0.0273636197862763 -0.0498557057155126 0.0150207716654806 0.0419617569192847 0.230883406868322 -0.0424220636845996 0.0138430161116638 
                -0.00994364971074467 -0.0183004818486195 -0.0145530983673807 0.0236472591393522 0.0112342037052864 0.0125488126236657 0.000651866938157492 -0.0159924647520932 
                -0.00499274594989502 -0.00652904046777235 0.0111318500546422 0.0147686194323511 
                -0.010699615797882 -0.0274600072480704 -0.00866191629901141 -0.018218543507101 -0.0424238352081999 0.0138413830683995 0.0379110245889239 0.237324380280677 
                -0.0505291939250085 0.0161873190100192 -0.0138301446550086 0.0224786181825845 0.0119813692672648 0.0141531196206793 -0.00584550793416677 -0.00506231467568949 
                -0.000217290392377049 -0.0136914576708614 0.0119057668872452 0.0109122181277416 
                -0.0434343562469829 0.0158203496542781 -0.00957162023104098 -0.0220810175957491 -0.00994496420725865 -0.0183063235568435 -0.0505258864343199 0.0161895768548735 
                0.0453782668849194 0.233393756334471 -0.00205338726103014 -0.0763833472589081 -0.0450465792157741 -0.022321822784468 0.0108393046953567 0.015064605134179 
                0.0109335319980612 0.0127670518545064 -0.0349267726308826 -0.000516309602781302 
                0.141416298018362 -0.040292585226643 -0.00328453619047323 -0.0763055939807916 -0.0145618224055762 0.0236529566870473 -0.0138358741279041 0.022483042088863 
                -0.00205219194338955 -0.0763863671368098 0.0513949883139027 0.229976860026219 -0.0440600780901565 0.0151748199205722 -0.00932520723504546 -0.0258916664302955 
                -0.00691980459051842 -0.0268494469222847 -0.0464019881204389 0.0165216117990996 
                -0.00257445821129455 -0.0771212044594634 -0.0343122292187418 0.00087049320006367 0.0112313911082771 0.012555917937159 0.0119827975392576 0.0141553069050236 
                -0.0450466735607507 -0.0223223794562989 -0.0440652842310987 0.0151686515431806 0.0451897999976985 0.233956637510212 -0.0480053038417074 0.0148450768506644 
                -0.00838591129502443 -0.0193002968362465 -0.00875667113954547 -0.0219761610015658 
                -0.0158382671917703 0.0255495478867049 0.0111081932734859 0.0128485372086101 0.000683315269618747 -0.0157692637858899 -0.00584608893170584 -0.00505864065999951 
                0.0108389166669817 0.0150601985196596 -0.00932333772792565 -0.0258884004267145 -0.0480100759853535 0.0148461162876542 0.0433247251007128 0.236163970614542 
                -0.0435689059795686 0.0121269672211283 -0.00758759806920988 -0.0181610693125226 
                -0.0156252732763803 0.0241785522806434 0.0111655815625452 0.015320459159786 -0.00499250445147406 -0.00652858918909873 -0.00021659476948333 -0.0136882794907569 
                0.0109356546839215 0.012762386902589 -0.00691806625203895 -0.0268454730303225 -0.00838424601802855 -0.0192960058495974 -0.0435694384898494 0.0121253613635778 
                0.0390213881610766 0.231122245845106 -0.0496247629206955 0.0149572178701948 
                -0.00122922516887693 -0.0772764571354612 -0.0458939191491082 -0.0223376467953358 0.0111315047650644 0.0147728381225997 0.0119045330915823 0.0109172868274701 
                -0.034926880748695 -0.000517761102874303 -0.0464065943652885 0.0165138880704655 -0.00875672978936263 -0.0219765488265433 -0.00758659011929204 -0.0181654839729739 
                -0.0496211587865101 0.0149589527534134 0.0449345419822584 0.234456925238619 

0.55                           0.109729320078347 -0.0347867252632506 -0.00656975390230206 0.0458658688042793 -0.0199821834305977 0.000217252258890171 -0.0217347644891284 -0.00189825063794125 
                -0.0051537199754692 0.0492301208509287 -0.0686424516752437 -0.137002137037149 -0.0695137262836252 0.0193701040147058 0.026046212715439 -0.00114458621702931 
                0.0257861148961242 0.00241879652200248 -0.070653868214845 0.0153595691286482 
                -0.00657349478600699 0.0458689293097141 0.114131026040016 -0.0254342866533891 0.000714175795640765 0.049524825375381 -0.016373885023549 -0.00685476907422519 
                -0.0182363373228617 -0.00077005350815714 -0.0691258714730851 0.0202191639941523 0.00968045952842009 0.021824925419227 -0.00125923255850167 -0.0115671185174127 
                0.00773704339547255 -0.0137818575937993 -0.0178997238130697 0.041466560932808 
                -0.0199745232450318 0.00021813204198513 0.000714378620295461 0.0495268417667733 0.117556444378515 -0.0278136172820638 -0.00486905509014745 0.0482973855428118 
                -0.0143995516449057 -0.00551848416933722 0.0254176052876416 -0.00278844845020561 -0.00127667304111926 -0.0138073074116641 -0.000910365625468436 0.0100754123715388 
                -0.00284950813473867 0.00427309942304834 0.00784325669212925 -0.0142593589898706 
                -0.0217239526916591 -0.00189579450736126 -0.0163775332319172 -0.00686017098469918 -0.00486753587551287 0.0482977819507612 0.117670525454297 -0.0242480632654826 
                0.00287275827893732 0.0504290456076504 0.0229427930114525 0.00104087947737958 0.00682560933421076 -0.013314209497001 -0.000849425856308353 0.00301397568929387 
                -0.0010108511029956 0.0083044880926293 -0.000461314189488737 -0.012393984993507 
                -0.00516020467607955 0.0492327677866931 -0.0182337119423111 -0.000767227480819183 -0.0144040019582348 -0.00551522444267666 0.00287395115235362 0.0504270348764615 
                0.112236174732428 -0.0264104809645437 -0.0688368410402359 0.0167166783642596 -0.017567704709774 0.0409720923041518 0.00671226287464573 -0.0129745376387355 
                1.33428058998232E-05 -0.0114462826685007 0.00775371403143808 0.0231985714277849 
                -0.0686388178553371 -0.137006197824822 -0.0691266398395936 0.0202222423011857 0.0254267269759715 -0.00278714131826436 0.0229505412826101 0.00104258880811704 
                -0.0688351816870472 0.0167187646109611 0.105483564787978 -0.0369791833906457 -0.00548201582719229 0.0487189253116246 -0.0220439360247999 -0.00395232863199904 
                -0.0227406927180905 -0.00432205492765525 -0.00436910400304308 0.0495913441825215 
                -0.0695127083465476 0.0193670405799575 0.00984923381403171 0.021760361725181 -0.00127171818532362 -0.013810094684632 0.00691489005121307 -0.0134862459764695 
                -0.0175669473494604 0.040970880328617 -0.00548378623654663 0.0487243679141352 0.11036033960433 -0.0249811128450312 0.00398730015929616 0.0495322366019617 
                -0.0160656072849473 -0.00748730741102958 -0.0193832071108187 -0.00121193788758596 
                0.0260432101402553 -0.00114647255556293 -0.00126109349447388 -0.0115665814811354 -0.00091223283491913 0.0100792397953526 -0.000848955352268667 0.00301448984640342 
                0.00671204014542147 -0.0129731741356016 -0.0220382802288094 -0.00395594069492584 0.00398799460548348 0.0495365231579504 0.114668565171601 -0.0239075319882512 
                -0.00328442731761842 0.0500380066106968 -0.0143870824863613 -0.00839540752744193 
                0.0257840548082849 0.0024171254098352 0.00773715943255908 -0.0137810013931352 -0.00285091317151647 0.00427544189485211 -0.00101042008247462 0.00830613782002003 
                1.16285031914763E-05 -0.0114442334207437 -0.0227322547754912 -0.00432184508081159 -0.0160713495453814 -0.00749184973376863 -0.00328179839232947 0.0500397580462891 
                0.116304312936992 -0.0242014133275317 0.00215025604148317 0.0510676966524808 
                -0.0706541469595897 0.0153568671806172 -0.0179001433829756 0.0414658263628335 0.00784534800065441 -0.0142598003347494 -0.000458401486999513 -0.0123978772805574 
                0.00775345752676628 0.0231980165215008 -0.00437324523434496 0.0495940291118961 -0.0193821851198564 -0.00121040565392008 -0.0143881344196603 -0.0083941041679571 
                0.00215194383614609 0.0510662868237777 0.114532522976105 -0.0239904622108249 

0.6                            -0.0979509422949297 -0.168380215127079 0.0345787433401793 0.0353744359474772 -0.00493144726366651 -0.000914481880294866 -0.00491923621580793 0.00287527672271606 
                0.0358120852663852 0.0322874431386244 -0.107138234895248 0.0461692539877309 0.0157231971751996 0.0643577614831119 -0.00803113679909979 -0.0204979314543359 
                -0.00968896044517219 -0.0221060213721094 0.014138461470405 0.0680249186182985 
                0.0345842515711533 0.0353775474419736 -0.0903475871284136 -0.180902173423291 0.028351898771398 0.0275444029237744 -0.000674930972402221 0.00023419359352895 
                0.000553496110799467 -0.00431752349140729 0.0151439823899965 0.0653846058842124 0.0302873166245773 -0.00725435061657583 -0.00903593233681771 0.00473303453254367 
                -0.0175321727709561 0.00262574019289953 0.0540943340678723 0.014193383804705 
                -0.00493579580675591 -0.000921335873793817 0.0283536101545523 0.0275494120621967 -0.092174202548753 -0.186765543770497 0.0307378739901846 0.0262025945011027 
                -0.00252818924333325 -0.00334068431734732 -0.00904610218365182 -0.0202305997419313 -0.00908181318054855 0.00527231983746718 0.0101349122744495 -0.00601510318224078 
                -0.0027023682630675 -0.0017544641424693 -0.016996531932264 0.00283357679779426 
                -0.00492740107433704 0.00286950920626124 -0.000675817170883946 0.000236338088634529 0.0307367898079601 0.0262004140148208 -0.0923315393228332 -0.185911479597965 
                0.0284149732182369 0.0268126231630018 -0.00972153008822689 -0.0212508316381228 -0.0173491637166323 0.00245567535742973 -0.00331596691873246 -0.00171302589237675 
                0.0115705228919579 -0.00487888715726128 -0.0102008620535446 0.0048490343343528 
                0.0358183624441572 0.0322892118541719 0.000552439200559112 -0.00431731866831764 -0.00252115128074493 -0.00334170510080121 0.0284122303201696 0.0268126691267307 
                -0.0913505434802463 -0.181966297731113 0.0132086018898368 0.0671791250084586 0.0531017589138202 0.0141780416459087 -0.0157771992148664 0.00213395289664629 
                -0.0096972545196819 0.00411016904998318 0.0314950351159543 -0.00703095933776152 
                -0.107134057392554 0.0461693554253553 0.0151430839305648 0.0653800244477947 -0.00904800890770694 -0.020235469180174 -0.00972352915885517 -0.0212548948024557 
                0.0132069569719513 0.0671736041820925 -0.101011803750466 -0.164348901131987 0.0355383970644018 0.0357744068936452 -0.000960102146816262 0.00231910855621147 
                -0.00244689896303667 0.00390054430842937 0.0357857156284805 0.0346515595224968 
                0.0157249221241691 0.0643585543628228 0.030287157188302 -0.00725469864372566 -0.00908351184108693 0.00527199555121143 -0.0173495478071173 0.00245542122676369 
                0.0531001988195653 0.0141770007905431 0.0355425537520649 0.0357762279767282 -0.0910442064352886 -0.180695061757221 0.027086518222555 0.0266943342049141 
                -0.000410628282279242 0.000466161710928019 0.0012445111607091 -0.00447262383024395 
                -0.00802863943639721 -0.0204920421926527 -0.00903397123741378 0.00473354024957871 0.0101353861196038 -0.00601521848177721 -0.00331602516831958 -0.00171364080562971 
                -0.0157753023389615 0.0021331869018577 -0.000959963845534935 0.00231501225699107 0.0270872958874388 0.0266952540796188 -0.091807160356328 -0.183068529381509 
                0.0306189588408721 0.0252522575671622 -0.00292232044198171 0.00074300816833745 
                -0.00968600178900129 -0.0220998800607347 -0.0175312679907558 0.00262556245840486 -0.00270182271310165 -0.00175472867128758 0.0115699273051722 -0.00487997518936449 
                -0.00969391778994569 0.00411012942141323 -0.00245077928394268 0.00389532112493823 -0.000410129235898263 0.000470138538911448 0.0306202496028342 0.0252519171556353 
                -0.0909375572653366 -0.185849053069465 0.028627606823278 0.0268745591146921 
                0.0141412088206848 0.0680260924206472 0.0540936446381488 0.0141933214778999 -0.0169970537734805 0.00283346992753242 -0.0102036231525562 0.00484943303572977 
                0.0314933900420358 -0.00703144059304764 0.0357900857548944 0.0346533748482054 0.00124348823127612 -0.00447258690824293 -0.00291942500004497 0.000742289655563756 
                0.0286253835803209 0.0268737541448425 -0.0863182281024547 -0.178986894280627 

0.65                           -0.272670576631495 -0.0656483491096548 0.0102292751028278 -0.0312621254616372 0.00152385803379576 0.0180151887170519 0.00353385408680226 0.0157467790196766 
                0.00796429061548717 -0.0333881845524406 0.0317073870106601 0.111306442402454 0.0664883497027449 -0.0175263539971181 -0.0143476708266901 0.0143347815799591 
                -0.0154994330936466 0.0138827824774564 0.0682387205253649 -0.0169312005914767 
                0.0102284695694112 -0.0312649692269908 -0.289680048797137 -0.0648808067425625 0.008558513030263 -0.0259768974817745 -0.00416006778411232 0.0143359515552473 
                -0.00900333829878617 0.0207417464155069 0.0672218495511053 -0.0162889343673223 -0.0171360841453148 -0.0280282505436264 0.00925035647665317 0.0065539084187556 
                0.00721936521806204 0.0122976881042988 -0.00116438052866217 -0.0611636110463891 
                0.00152030974796664 0.0180162443348168 0.00856297123923459 -0.0259816652321495 -0.294219196589318 -0.0624722825931482 0.00645060606999096 -0.0238073418937889 
                -0.00579733445007492 0.0178904131092055 -0.0158530474627284 0.0139293493217431 0.00896794743539308 0.00770099858500104 -0.0066822219000717 0.00162975939018473 
                -0.00155245047490611 -0.00175766528913466 0.00612724817393375 0.0130518597138483 
                0.00352920998895026 0.0157478045155649 -0.00416063646634649 0.0143380552568252 0.00644991626027099 -0.0238069620673616 -0.29391766328337 -0.059853354817143 
                0.00876987714631266 -0.0263599388286428 -0.0156235737990403 0.0129166850886244 0.00558390166739411 0.0129622522218376 -0.000909201462506918 -0.000727123518448864 
                -0.00631428269359325 0.0011095669947823 0.00900159314093179 0.00812419880285974 
                0.00796403053965336 -0.0333908511031717 -0.00900227521421326 0.0207423382232742 -0.00580009561531076 0.0178854991772627 0.0087690428829211 -0.0263580005871114 
                -0.291253374479386 -0.0631843711239035 0.0681243866370705 -0.0154940434559312 -0.00102822921836127 -0.0611444094573769 0.00613931177911832 0.0125996189898113 
                0.00908589504542215 0.00790027381423352 -0.0165521124559416 -0.0302255060282606 
                0.0317070212561174 0.111305720360822 0.0672200314678252 -0.0162846387782936 -0.0158532199124861 0.0139317600168244 -0.015624795078048 0.0129190475489967 
                0.068122361099411 -0.0154882302965508 -0.271485245785423 -0.065392399377859 0.00957127854406763 -0.0340800249919506 0.00182062161046575 0.0153307676909332 
                0.00397488177291532 0.0156375667763584 0.00950269775482814 -0.0351395597627857 
                0.0664900219820152 -0.0175304772365108 -0.017135878551195 -0.0280279933031712 0.0089696650676847 0.00770065461481886 0.00582181419210913 0.0129731897793806 
                -0.00102807619129212 -0.0611431132735923 0.00957166432965267 -0.0340823608497909 -0.292516487865709 -0.0659786862412598 0.00840965755923703 -0.0244044721917625 
                -0.00387603515061519 0.0147556678749136 -0.00873113297344496 0.0207657434334682 
                -0.0143458560448678 0.0143324129749538 0.00924915806609677 0.0065527153439762 -0.00678526845944996 0.00147309589933226 -0.000909143143851299 -0.00072653758036094 
                0.0061391700758361 0.0125992407824061 0.0018168108606894 0.0153290260915053 0.00841051378990618 -0.0244070284433937 -0.293246039792529 -0.0597589014132433 
                0.00626368947220343 -0.0217643379991122 -0.00423039886234189 0.0175725928460132 
                -0.0154978287784777 0.013880408113821 0.0072191976386999 0.0122969203175957 -0.00157663645177836 -0.00194803962834448 -0.00643961914765922 0.00116822813244861 
                0.00908276259214167 0.00789949450721828 0.0039706017174085 0.0156377378784411 -0.00387442694990199 0.0147572096822611 0.00626242829497899 -0.0217649304547158 
                -0.293931715766111 -0.0623401645177205 0.00753886870786149 -0.0262416928300537 
                0.0682396092422876 -0.0169362101425959 -0.0011636971292353 -0.0611622551801472 0.00600689572746848 0.0130494440121515 0.00900508026658855 0.0081241995657467 
                -0.01655216924785 -0.0302242242197326 0.00950454469979001 -0.0351402570179858 -0.00873037912846244 0.0207669140679811 -0.00423144907684553 0.0175698847065227 
                0.00753804628093419 -0.0262391189899691 -0.286843746710673 -0.0662872824755934 

0.7                            -0.371345934294847 0.180660239058871 -0.034492649835131 -0.0022059335580871 0.000587189044106375 -0.0108649473078966 -0.000727816505043731 -0.0109672810571099 
                -0.0361406240158381 -0.000580313590839935 0.0887277811464442 -0.0240479617204292 -0.0279582098597449 -0.0596607833550464 0.0128292579841207 0.00373479042949471 
                0.0133198859289367 0.00471737170120832 -0.0276668813052549 -0.060461517282349 
                -0.0344922954738436 -0.00220690953451415 -0.356141112353491 0.185107255547845 -0.0315061153724675 -0.00515025410567045 0.00242711753698631 -0.00362474915906535 
                0.0102498754513133 -0.00429014328972575 -0.0282494455739184 -0.0611064026686541 -0.0198675095657419 0.0309190511706791 -0.000757460640827906 -0.00940277394918375 
                0.00530237072107332 -0.0112358434141781 -0.0588699469957627 0.0215113296402593 
                0.000589803243456155 -0.0108637603195899 -0.0315118948194043 -0.005153749331752 -0.360216870619229 0.191352537170933 -0.0319427756738022 -0.00374443616336626 
                0.00469209874999951 -0.00370277977270398 0.0150409892363493 0.00457651315088871 -0.000496103150623442 -0.0100160292681469 0.00429628287998019 0.000260120137640354 
                0.000447328652626939 0.00175384885779252 0.00518557555982685 -0.0121139385970324 
                -0.000723650193871758 -0.0109642759871247 0.00243148019501404 -0.00362726176379687 -0.0318266583628713 -0.00382925831944215 -0.35716950699889 0.193567004135593 
                -0.0324214305162628 -0.00490424251650937 0.0135820012842038 0.00580256206709836 0.00615859193670761 -0.0114700809055772 -0.000651092484701041 0.000823254022328624 
                0.00413341184289125 0.000683311557976101 2.89264807059252E-05 -0.00932193937307871 
                -0.0361407208941138 -0.000582006040850276 0.0102497506339047 -0.00429092331597222 0.00468802483145428 -0.00369939625406289 -0.0324188885694101 -0.00490281997839178 
                -0.356114150451111 0.187229615808766 -0.026615177636718 -0.061921049759032 -0.0583511524116106 0.0214539524050489 0.00489372229530685 -0.0113035141494988 
                -3.68907664137041E-05 -0.00983304568869411 -0.0219794944402718 0.0316463432817259 
                0.0887270368159276 -0.0240478566095219 -0.0282458245168385 -0.0611097491922501 0.0150406295607511 0.00457373250307347 0.0135827673659729 0.00580101827211614 
                -0.0266099105008854 -0.061925429492921 -0.374385373776012 0.181052891953947 -0.0369379641311137 0.000132589580496966 -0.00119250877310639 -0.00985700273493866 
                -0.00138858680757575 -0.0104507727113952 -0.0365076126037519 0.000167800217251913 
                -0.0279611898668655 -0.0596577909999887 -0.0200964162444558 0.0308241819949116 -0.000497551775545399 -0.0100159868518503 0.00615434642392725 -0.0115182921143225 
                -0.0583511957619178 0.0214527792741141 -0.0369388963750241 0.000130978969647746 -0.358271808448789 0.190399564156359 -0.0308999548115523 -0.00613294512705679 
                0.00295809291585854 -0.00482194360208325 0.0100137289934616 -0.00619843073906342 
                0.012828269528482 0.00373604866848293 -0.000755807927277925 -0.00940099072997249 0.00429556909465287 0.000260428974046708 -0.00065160829710652 0.000822906985789805 
                0.00489329779263719 -0.0113036331013148 -0.00119136623966142 -0.00985414991891629 -0.0309034520039886 -0.00613583988235926 -0.359308104664592 0.195147239960697 
                -0.0305716004597976 -0.00423669202517573 0.00415585695988061 -0.00486847943869035 
                0.0133189789875785 0.0047185395379145 0.00530168749104683 -0.0112350089749208 0.000447066469963072 0.00175414760055637 0.00413311054049422 0.000683964936011896 
                -3.50201685899192E-05 -0.00983183731672999 -0.00138625321572602 -0.0104485251282515 0.00296184150715253 -0.00482440120235303 -0.0305716756726795 -0.00423595326489151 
                -0.36257144878659 0.194209008623868 -0.0316352969679147 -0.00535296639125021 
                -0.0276702560657568 -0.0604577465292884 -0.058869528777592 0.0215111630055194 0.00518579178046997 -0.0121134442392688 2.68369400571767E-05 -0.00932362870994083 
                -0.0219797870933199 0.031646763530902 -0.0365083201050447 0.000165582431627424 0.0100143770273235 -0.00619922431292126 0.00415301607274255 -0.00486613553913579 
                -0.0316332724520479 -0.00535133296576914 -0.354552939741014 0.185501274407687 

0.75                           -0.219508649324622 0.445236811249362 -0.0668074714835679 0.0176204225505095 -0.0677583040812804 -0.00464020423462392 -0.0669251769104251 -0.00397302794309596 
                -0.0652651443258924 0.0200247548759817 0.000962778979151555 -0.0377993999802859 -0.0386851276544511 0.0371075116464344 -0.000756725959394366 0.00503384540139686 
                -0.000384915656441129 0.0047120328983793 -0.0387212680071463 0.0365440398716401 
                -0.0668092840346258 0.0176204014187108 -0.240233574146549 0.436846727501178 -0.064314282019553 0.0274135053605361 -0.0640118465102155 -0.00588300164958089 
                -0.0738181406273381 -0.00415905507201078 -0.0404013829713345 0.0383006000179078 0.0527848207034093 -0.0081350069753091 0.00377430321577811 0.000688057379858536 
                -0.000358776576963747 -0.00485699266727716 0.0531574486159095 0.0311145851891664 
                -0.067757790333455 -0.00464091140180555 -0.064320154841278 0.0274191056749569 -0.228125383247263 0.433710346809742 -0.060232976486552 0.0252808198076513 
                -0.0653315362428726 -0.00685052179930699 -0.0020136237585441 0.00373056667467452 0.00391507568244377 0.00181348776371634 -0.00364191163679946 -0.00147496174302569 
                -0.000123264060805908 -0.000404363657180359 -0.000553791379037592 -0.00236745492453351 
                -0.0669235656384669 -0.00397497718606666 -0.0640125939735686 -0.00588469060363675 -0.0602328284362937 0.0252816670779402 -0.222064948334216 0.432183933083028 
                -0.0641637620712184 0.0299304912839368 0.000274566509391263 0.00406963112161386 -0.00134375556448306 -0.00391945466399181 -0.000323429889412062 -8.34753882770518E-05 
                -0.00350783508607722 -0.00148220122215206 0.00256196650210631 0.00117538726269904 
                -0.0652654154604715 0.0200251471756737 -0.0738194553991533 -0.00415788197387066 -0.0653284123887129 -0.00684911555705395 -0.0641606549661981 0.0299254343888142 
                -0.240887825779334 0.440947294085339 -0.0411212268832025 0.0369045224198004 0.0530406668625984 0.0301563915799107 0.000131858062134847 -0.00334746856702673 
                0.0028472146010861 0.000207922145202771 0.0540035621619414 -0.00790354474035927 
                0.000964345061926927 -0.037799091815957 -0.0404058001490624 0.0383031342269432 -0.00201590138623301 0.00373290454868722 0.000272029870496075 0.00407149853890769 
                -0.0411262755196886 0.0369059165181948 -0.219983477083261 0.45235041752352 -0.0631058271091101 0.0201501495182587 -0.0657918748253397 -0.00380051936275784 
                -0.0668109839965946 -0.00346503396178353 -0.0639511672090832 0.0194775459988418 
                -0.0386820077216178 0.0371047902971401 0.0527855729418873 -0.00813524143323242 0.00391490617815288 0.00181434630802006 -0.00134488255937821 -0.00391946361414408 
                0.0530630604734632 0.0303204337393513 -0.0631063561839299 0.0201515677296526 -0.238217843155409 0.441111211979127 -0.0642503803178692 0.0300808731403692 
                -0.0648096836745512 -0.00494750376979716 -0.0741618449112988 -0.00249494821478588 
                -0.00075379583771122 0.00503281092672304 0.00377446620044443 0.000685963921158339 -0.00364123764235631 -0.00147550541525681 -0.000323009190827103 -8.32442665258267E-05 
                0.000134119991011232 -0.00334757120142611 -0.0657896931452351 -0.00380266792344604 -0.0642562851663108 0.0300867229877978 -0.22088983971149 0.439801916950219 
                -0.0605114938378014 0.0258322332268664 -0.0654838893535017 -0.00530463746315944 
                -0.000382227872649142 0.00471034835947796 -0.000357073844966976 -0.00485820072383191 -0.000122958442710383 -0.000404960173777913 -0.0035073960533011 -0.00148251939418435 
                0.0028474304115298 0.000205850070448319 -0.0668088878827883 -0.00346725773153978 -0.064811669738611 -0.00494818305019052 -0.0605117214305773 0.0258324131057302 
                -0.22403144753724 0.439036901320481 -0.064779477525582 0.0304794096634697 
                -0.0387174968530676 0.036541096200666 0.0531567302389285 0.0311148045422249 -0.00055516093224384 -0.00236820336287797 0.00256201401827998 0.00117730503925595 
                0.0540045419963179 -0.00790351231026935 -0.0639507315112261 0.0194791401905107 -0.0741622016923603 -0.00249503622305382 -0.0654812361784861 -0.00530380669601738 
                -0.0647743125122438 0.0304751700326972 -0.237347705944189 0.437472141557439 

0.8                            0.135124690364884 0.442479653047349 0.0143083427000856 0.0199054495591791 -0.00180854007685831 0.0126761962814936 -0.00176614135862518 0.0127407108099706 
                0.0154476127994672 0.0192835347089923 -0.0672902202096274 -0.0360207795995287 0.0189087669005763 0.0449118601830926 -0.0173952893286097 0.000655224539944536 
                -0.0168462016548791 -0.000764221597455188 0.0167814255899021 0.0450650342324155 
                0.0143080755095594 0.0199060762136999 0.125593639053113 0.457466273701133 0.021659905433994 0.0146174265192415 -0.00371832225850782 0.0105489842286531 
                -0.00375259538233497 0.011997258072735 0.0194727215673112 0.0456323846196195 -0.00300825593400847 -0.0185129595360184 0.00908311114758963 0.00441263910197055 
                0.00579405591495574 0.0117928342587414 0.0338235444102649 -0.0271756235251801 
                -0.00181084718556395 0.0126762962152737 0.0216624999838345 0.0146222956312277 0.130449730254755 0.449703683002281 0.0205683706224007 0.0121773607014558 
                -0.00577421316110477 0.0112356195050686 -0.0189539721049819 0.00168003664083779 0.0094180578549259 0.00492855684254483 -0.00156885435524832 0.00446218990846752 
                -0.00386643496516093 0.00248282805262236 0.0068856066819763 0.0112438765739239 
                -0.00176887325722145 0.0127404899115551 -0.00372091392146609 0.0105525227334704 0.0205681929465696 0.0121783124202526 0.130910742147835 0.443254080865084 
                0.0219805619743791 0.013569031370225 -0.0194071446009438 -0.000514891269186881 0.0064685480998269 0.0117917285570469 -0.00380374783783137 0.00195407249881856 
                -0.00194155947701309 0.00359819250178669 0.00844599653531298 0.00560311230538802 
                0.0154482635697082 0.0192823947395053 -0.00375052541068874 0.0119979502069424 -0.0057719027919452 0.0112327964505889 0.0219779986825451 0.0135669359672688 
                0.127879121493648 0.458578885254468 0.01770269785382 0.0461799551427168 0.0325126600846204 -0.0273911457957093 0.00689512130305456 0.0111195640967585 
                0.00862796829325002 0.0054427136083576 -0.00340391243431215 -0.0198487422819991 
                -0.0672904779753152 -0.0360216104238057 0.0194742898026403 0.0456352131911808 -0.0189510037646026 0.00167803737470904 -0.0194046915733934 -0.00051659536271784 