! Touchstone file exported from HFSS 2019.3.0
!        File:           D:/5ELx2 NearField.aedt
!        Generated:      9:02:41 AM  Dec 09, 2019
!        Design:         HFSSDesign1
!        Project:        5ELx2 NearField
!        Setup:          20_to500M
!        Solution:       Disc
!
# GHZ S RI R 50.000000
! Modal data exported
! Port[1] = 1:1
! Port[2] = 2:1
! Port[3] = 3:1
! Port[4] = 4:1
! Port[5] = 5:1
! Port[6] = 6:1
! Port[7] = 7:1
! Port[8] = 8:1
! Port[9] = 9:1
! Port[10] = 10:1
0.02                           -0.595746157660533 0.679414585317091 0.212186072595565 0.113310201313928 0.152407244363008 0.040959294034798 0.152442087249022 0.0410274252454099 
                0.212011823985131 0.113145297522677 -0.000106611251910958 0.000546920140066344 -0.000106154080885786 0.000134905346798068 -0.000221525633530151 -7.54193796664273E-05 
                -0.000144922524216686 -7.3642398719273E-05 -1.32422607025197E-06 0.000110737988749984 
                0.212185360084236 0.11330986199885 -0.596030418017623 0.679218521748489 0.209871331467518 0.112438297230963 0.152335914640232 0.0412551183206617 
                0.154077153766649 0.0417036923243436 -0.000110443087964307 0.000111361999759428 -0.000249616259122784 -0.00018629570903425 -0.000216821735284334 0.000101936577312691 
                3.72188857956007E-06 0.000176317693621429 -2.50189655994364E-05 0.000478498147754732 
                0.152406327194317 0.0409591496794653 0.209871183192914 0.112437758280551 -0.593606240453247 0.680139658738488 0.209781656018002 0.113843203110968 
                0.152173969830658 0.0413791585609238 -0.000149637376757583 -0.00013639306761119 -0.000203954239105875 7.48179124870606E-05 -9.70705978769532E-05 0.000331811255960695 
                6.08828135395792E-05 0.000237808535772115 -6.41658841815328E-05 0.000194978399451578 
                0.15244121210482 0.0410276147580282 0.152335871438504 0.0412551676688547 0.20971366814338 0.113751472074949 -0.594763612269435 0.679174110267494 
                0.209602208660056 0.112643670370142 -0.000179994803622957 -0.000181387762294699 -4.27974427351244E-05 0.000129338790237665 5.70508099754185E-05 0.000228535283545576 
                -7.96871422750833E-05 0.000353715290892724 -0.000174354157180028 0.000141250942958035 
                0.21201157519668 0.113145330781982 0.153996353203527 0.041562281071706 0.15228621016436 0.0412823410336838 0.209585787147758 0.1126085887053  
                -0.595807451392255 0.678556344189683 -9.87201908006585E-05 4.2677656662538E-05 6.3370029639573E-05 0.000304302244342438 4.59822943179967E-05 0.000130926137951258 
                -0.000234613095853953 0.000170856821702485 -0.000229449128490343 -8.52907884119173E-05 
                -0.000125651596944435 0.000556583576813066 -5.00419206032751E-05 0.000122533285076304 -0.000182373003513715 -0.000119854375563029 -0.000213260158083618 -9.37455618356834E-05 
                -6.76636870301655E-05 9.69276670342038E-05 -0.595123280348385 0.67958474310423 0.212307455129471 0.113128656536257 0.152851202112386 0.0412590227800474 
                0.152582406876939 0.0411999388313226 0.212263085588017 0.112928859790353 
                -0.000120923150479031 0.000131158003038014 -0.000239615289489608 -0.000180987543337433 -0.000178703579861601 5.04166856648473E-05 4.03731591045361E-06 0.000142994622744645 
                -3.536879956464E-06 0.000454250670673434 0.212306780455791 0.113128420916132 -0.595384166367252 0.678981385331346 0.209962607654413 0.112366621948163 
                0.152068644867829 0.0413345805652478 0.153702132988037 0.0415912187565035 
                -0.000207713200376132 -0.000114317264602673 -0.000214615961951851 6.8844229031155E-05 -6.96428277453917E-05 0.000246288813727463 8.7101840918528E-05 0.000228477484793345 
                -7.05470674260508E-05 0.000273090314456797 0.152850433071813 0.0412590853209439 0.209962432011319 0.112366284681319 -0.593313697707704 0.679921480922534 
                0.209931892962432 0.113317934315593 0.15203654230861 0.0413494255168413 
                -0.000218285034310077 -0.000125281288804958 -6.27192666818903E-05 0.00035141877964296 2.68276427731728E-05 0.000259247906365689 -3.65465666637869E-05 0.000228692138624466 
                -0.000239545409138504 -1.66174910169883E-05 0.152581592258968 0.0412000645306626 0.152068543759909 0.0413344088072763 0.209771502471448 0.113263264807223 
                -0.593057997230359 0.679800872879607 0.209637041917698 0.112115897153416 
                -0.000138666980017985 9.57110760529856E-05 5.49723653604467E-05 0.00048037863659395 3.01769079967372E-06 0.000156632248220753 -0.000197154914961691 7.31544050038428E-05 
                -0.000289156952054092 -0.000248512760183056 0.212262910792657 0.112928638966468 0.153530240821043 0.0416145049761532 0.152206449792227 0.0413163266357327 
                0.209637118997602 0.11211609831704 -0.594871531369897 0.679169275794488 

0.04                           -0.0717532663628539 0.842558775116978 0.307088528494044 -0.0595907981665244 0.157950582118103 -0.108273599262826 0.157518671457965 -0.108449690704799 
                0.306441283371733 -0.0603241290177039 8.66366536803341E-05 0.000891175405055003 -0.000554904060362682 0.000517977010196733 -0.000441355635224098 0.000321511286772174 
                -0.000509197520245478 0.000193886828422752 -0.000493194318703929 0.000511310859931225 
                0.307088953582707 -0.0595913421440922 -0.0719473836160151 0.84277573875324 0.307671124346349 -0.0596908074151409 0.157525990381237 -0.108222305200937 
                0.157532409895209 -0.108079944719968 -0.000657731939520994 0.000610148684868057 -0.0017582748460805 1.0668577174056E-05 -0.000534386537348213 7.57344157898199E-05 
                0.0006806167649407 -0.000127000152328654 0.0010676973280572 0.000988731222111781 
                0.157950568614719 -0.108272555841303 0.307671745665857 -0.0596910529320709 -0.0715951831019953 0.842373818656524 0.307405292902008 -0.0595927557636813 
                0.158614551559743 -0.108338705644081 -0.000684078469962703 9.1134132005377E-05 -0.000412187674188291 0.000113761983061028 0.000339688523908764 -6.6323400796764E-05 
                0.000831896648977921 0.000331230582696256 0.000841560700834292 0.000440967884125814 
                0.157518725300777 -0.108449301887197 0.157525411499069 -0.108221696055341 0.307538408315261 -0.0597581818853314 -0.072623877411282 0.842771386162169 
                0.307352993690828 -0.0594866521578829 -0.000708204286322158 5.68362387489881E-05 0.000874080748417658 0.000157179060129632 0.000615293688366609 -6.47342235652879E-05 
                -0.000123165556409325 -0.000158321961122845 -0.000483095998419645 -8.75889053744707E-05 
                0.306440600050762 -0.0603247792113518 0.157531637882668 -0.10807929714965 0.158614888904485 -0.108339352127743 0.307353277284996 -0.0594857912656899 
                -0.0727996604233907 0.841529092615231 -0.000699253290714038 5.29466792644578E-05 0.00104082342340213 0.000383051442945746 0.00051938016271758 -0.000402428672797541 
                -0.000520709423358621 -0.00050610444089598 -0.00171952373265882 -0.000771058295341636 
                8.69608897565024E-05 0.00089119395096524 -0.000658421134934697 0.000610338290170146 -0.000529216116024537 0.000254931523479089 -0.000708158609284701 5.69942704287431E-05 
                -0.000699671173552375 5.19539839700746E-05 -0.0700856812625788 0.843608128916798 0.306763100965552 -0.060230135279282 0.156771108038029 -0.108717064775301 
                0.157304171937329 -0.108216947995206 0.30733161470287 -0.0597410028221523 
                -0.000394012583348158 0.000387715801128675 -0.00175832947800459 1.11923083482849E-05 -0.000406573538923832 8.83681613727525E-05 0.000874013397821143 0.000157060178670754 
                0.00104037365181413 0.000382446278771579 0.306763003804353 -0.0602289473088767 -0.071657016541539 0.842573629196054 0.307428021429141 -0.05925251824048 
                0.15788480869615 -0.106565450877963 0.157223537159225 -0.108829879512086 
                -0.000440954580011143 0.000321622594167824 -0.00053423517126544 7.50966915351234E-05 0.000339747340411499 -6.57019988968007E-05 0.000614930237456729 -6.47883850411787E-05 
                0.000519371719897801 -0.000402933402452569 0.156770197387695 -0.108717052566815 0.307428296102911 -0.0592527029984773 -0.0700952952916617 0.84353953349032 
                0.307458605927095 -0.0589083057977987 0.156287299062753 -0.108608512955829 
                -0.000508574712279446 0.000194108922402197 0.000680953042341599 -0.00012749098785223 0.000831820607700052 0.000331776544464448 -0.000123563383731136 -0.00015880288572315 
                -0.000520115332968381 -0.000507403565880496 0.157304227933895 -0.108216437849815 0.157885381702237 -0.106563693755012 0.307457658785059 -0.0589084827162486 
                -0.0717154840880682 0.841120953902574 0.306569691629337 -0.0600540222058679 
                -0.000492427517143077 0.000511245285060828 0.00106695743341844 0.000988481635268274 0.00084056656697865 0.000441251969529334 -0.000520903253246016 4.63313106983563E-06 
                -0.00171902533245864 -0.000772791656395496 0.307460752012958 -0.0597534624828063 0.157224004292616 -0.108830068705945 0.156287649833024 -0.108608346439001 
                0.306569417838336 -0.0600550570728487 -0.0698724408040334 0.844078350447358 

0.06                           0.360996869898391 0.753524908357913 0.254133061496225 -0.212974839905358 0.0627694602281909 -0.172667808874397 0.0624371386786514 -0.1718065978317 
                0.253504076360449 -0.21237047854427 -0.000364016421748055 0.00263421414240698 -0.000878520711391018 0.0017856778824576 -0.00125942072784148 0.000424563723674023 
                -0.0009157835008889 0.000449403989197062 -0.000999339826638336 0.00157442861716738 
                0.254132933650087 -0.212975860988399 0.360934089619127 0.753285220304242 0.254607602762449 -0.212957652430158 0.0628079448988452 -0.171418226469887 
                0.062858731640884 -0.171881215300775 -0.000675024856453701 0.00171076422595455 -0.00235573342501243 0.00234562586246414 -0.0010830354579319 0.000734561637789032 
                0.000501372851069775 -0.000497609226343211 0.00170647803236358 -0.00019044883419914 
                0.0627692273926982 -0.172668309465931 0.254606839219794 -0.212958201846403 0.360764976824187 0.752954620433663 0.254866469944155 -0.213361186547315 
                0.0636088461862058 -0.173052313594851 -0.000716012011039418 0.000518625862648472 -0.000996832358555286 0.000769055134640647 0.000263126882056085 -0.000657524088072403 
                0.00059923932796653 -0.00127602895617653 0.000847767715076759 -0.00090926176799673 
                0.0624374728670057 -0.171806470431052 0.0628080870128838 -0.171416851126954 0.254866010155001 -0.213361325262471 0.36074602682677 0.752568371890771 
                0.254686914263791 -0.213404892677254 -0.00134627822390309 0.000147198618732377 0.000360678309259714 -0.000990512619649841 0.000978389328776859 -0.000804636042237091 
                -3.17455970272936E-06 -3.35677440629796E-05 -0.000974739494189009 0.000491008778814875 
                0.253503723583255 -0.212369221364671 0.0628588516453897 -0.171879892774401 0.063458470058471 -0.173164711620457 0.254687926949267 -0.213405503068693 
                0.35943443841335 0.752994168731488 -0.00104784321816237 0.0021144942434979 0.00127299640349886 -0.000319878607566826 0.000108041905974465 -0.000899489237926078 
                -0.00123381964392035 0.000844826471238902 -0.00272591200030647 0.00279454872006769 
                -0.000364719969198846 0.00263381697606357 -0.000675624037489664 0.00171073733191163 -0.000715462895636287 0.000519219890071199 -0.00134578647921563 0.000147231488917265 
                -0.00104808627187736 0.00211497784559977 0.363023272930715 0.752678831977422 0.253953523191729 -0.212674396603278 0.0618445029547152 -0.170946687760184 
                0.0620370103714367 -0.171107180785041 0.253710014272772 -0.213058840636198 
                -0.000989642477302349 0.00178851722332352 -0.00235622164535075 0.00234495199216805 -0.000996470554119486 0.000769139675118158 0.000360424882653657 -0.000990397447379054 
                0.00127298796272268 -0.000319495925600044 0.25395443567849 -0.21267428791404 0.361314864126552 0.752624547927463 0.254590862640931 -0.212883841054583 
                0.0638954588154064 -0.171431867108415 0.0618974532971959 -0.171653804239583 
                -0.00125930769844126 0.000424151333555445 -0.00129655021300039 0.000802137339418141 0.000262553290908338 -0.000657483272094361 0.00097842128560266 -0.000803953153635906 
                0.00010780248980008 -0.000898531449412154 0.0618436326208669 -0.170946077598467 0.254590001137563 -0.21288404457776 0.363389399740916 0.751358831837813 
                0.254758580256034 -0.213311232137932 0.0616126525246883 -0.171786728900553 
                -0.000915931652148316 0.000448325047904263 0.000501368961049797 -0.000498327206961191 0.000599715956558056 -0.00127658495263772 -3.33510436689721E-06 -3.30231493941291E-05 
                -0.00123472760311516 0.00084519469174682 0.0620367778891879 -0.171107640840013 0.0638956715296015 -0.17143244985635 0.254757177244524 -0.213311555754851 
                0.360255966895031 0.753472839999177 0.252966518582833 -0.212097761455063 
                -0.00100002305620372 0.00157366775282064 0.00170715193760529 -0.000190028259117181 0.000848458130860319 -0.000909185164980952 -0.000974718206491199 0.000490386282767652 
                -0.00272708021470636 0.0027947914948685 0.25371002898889 -0.213059408986428 0.0619546568170453 -0.171435051858172 0.0617188131259283 -0.171663793796458 
                0.2529647845655  -0.212096920934677 0.361778807450354 0.753867869979622 

0.08                           0.657790783817499 0.517063054602736 0.142078158581765 -0.303541882178377 -0.026408824818461 -0.168805065215325 -0.0255779433430456 -0.167845416726512 
                0.142452329462244 -0.302079298144783 0.0025818178811041 0.00548340864400754 0.000940624407497587 0.0040312357537375 -0.000936369268859428 0.0024031652826265 
                -0.00113483128221533 0.00187796565492568 0.000769065594757681 0.003878726753084 
                0.142077800265501 -0.303541356269037 0.658692490185052 0.51473768261619 0.143106007260485 -0.303415744588964 -0.0249991585869726 -0.168833366875985 
                -0.0257900386966581 -0.168877425979706 0.00151330265709898 0.00393874844498885 0.00074390134692265 0.00480469822458748 -0.000166810263940872 0.00183808693551871 
                -0.0013449594301772 -0.000853765775279318 0.00059823318576995 -0.000878947638685788 
                -0.026408377733841 -0.16880544156998 0.143106217700644 -0.30341632510298 0.657762508974616 0.51707365239826 0.14214025944042 -0.303816814735276 
                -0.0262398232877027 -0.17015822999858 -0.000541625316220047 0.00140675556808941 -0.000239404111913374 0.00150077964314583 -0.000463385778585353 -0.000434113544687544 
                -0.00120476482527095 -0.00157951889501394 -0.00104842215858042 -0.00140035523862063 
                -0.0255784333583824 -0.167845012495997 -0.0249972225940123 -0.168833156446542 0.142140289978448 -0.303815019631014 0.657174496731696 0.514589142985282 
                0.142744474693881 -0.303436202442786 -0.0014291269533967 0.00189659249389144 -0.00105920376522719 -0.00120381313367821 -0.000993015326785345 -0.00174876397973162 
                -0.000868694362023444 1.52485633928398E-05 -0.00113809473430765 0.00192379476644002 
                0.142453181568006 -0.302077919087402 -0.0257889186918865 -0.168876564108936 -0.0262404753378517 -0.170157948060516 0.142744853816328 -0.303436451857747 
                0.657354006473892 0.517515759235358 0.00138969289989821 0.00389021324909444 0.0010652961018907 -0.000462156473041558 -0.000872366827283029 -0.000565395376418679 
                5.71795960056447E-05 0.00193911288103932 0.00116545234582847 0.00524460207732616 
                0.00258116636925354 0.00548399551949142 0.00151411440725157 0.00393864899070582 -0.000540782279050211 0.00140524530219733 -0.00142897178621734 0.00189617271753478 
                0.00139075240025126 0.00389086485873899 0.658979720215681 0.514945556348094 0.142188157042114 -0.303271468447458 -0.0256234111854571 -0.167806163645446 
                -0.0260064315177053 -0.168043029618733 0.14257626972982 -0.303091952670646 
                0.000940651440656627 0.00403168198632549 0.000744582142537754 0.00480462818047817 -0.000238840842520275 0.00149977550159119 -0.00105980971734089 -0.00120433050479995 
                0.00106587753537765 -0.00046165240594062 0.142188560669146 -0.30327213535671 0.65789752127227 0.514794831853168 0.142369003586986 -0.304422311435072 
                -0.0257409495269121 -0.169740212974687 -0.0262845466656441 -0.168148640603773 
                -0.000937567218807881 0.00240279339133754 -0.000168031276304113 0.00183804075424329 -0.000697067072026664 -0.000498675892744173 -0.000993701530678796 -0.00174952139952316 
                -0.000871749741842262 -0.000564725082527444 -0.0256241664868839 -0.167806129447769 0.142368575104386 -0.304422499937641 0.659120110288436 0.512559259983557 
                0.14185874647169 -0.303125176221793 -0.0263177117348412 -0.166851346226393 
                -0.0011367288599894 0.00187803951469764 -0.00134639983504148 -0.000853925853147001 -0.00120505576846576 -0.00157991775629831 -0.000870050817833864 1.61203135777654E-05 
                5.67477761481269E-05 0.00194029331045901 -0.0260059275477758 -0.168042358782522 -0.025740915783528 -0.169741298593035 0.141858051406474 -0.303123081403708 
                0.657271698639661 0.517883437719517 0.142096521468244 -0.302319345404483 
                0.000767475044221368 0.00387891356298005 0.000598240647410475 -0.000879544239024561 -0.00104760045420328 -0.00140137797010092 -0.00113946655829797 0.00192369341680622 
                0.00116532405530944 0.00524523993909281 0.142576732061211 -0.30309196412507 -0.0262843896266957 -0.168149149107721 -0.0263176006970103 -0.166850001396476 
                0.142095611617934 -0.302318746094247 0.66105614987706 0.515287824677825 

0.1                            0.805531583169674 0.215358724447756 0.0108302021290775 -0.334912660532655 -0.0926684663137177 -0.134872921837325 -0.0910173869437179 -0.134970035886754 
                0.0128106439888242 -0.33436341308744 0.0105864369194687 0.00630226443405225 0.00645189694814337 0.00515671675758929 0.00192552044643724 0.00447113730635824 
                0.00110995550885603 0.00451285583733214 0.00759011580140202 0.00542873832793483 
                0.0108307588986304 -0.334911933702759 0.8057418082243  0.213636486040684 0.0123416793544738 -0.334758568243257 -0.0916624499113129 -0.135851209728874 
                -0.0925383721122105 -0.135584390473177 0.00678701761862922 0.00485821123693753 0.00551399057016189 0.00516031229372375 0.0010798676506147 0.00317438117716843 
                -0.00105511690380846 0.00163777451849334 0.00310949270615194 0.000860418225273464 
                -0.0926695005508966 -0.134874225627715 0.0123414298455097 -0.334758648856624 0.806597879291401 0.216055801105684 0.0112433202362682 -0.334301091193311 
                -0.0937829047415635 -0.136127315973643 0.000596070828232184 0.00373217199032829 0.000822383933252434 0.00257518781220531 -0.00193282259390714 0.000874173184608725 
                -0.00298472171102361 0.000327657974132735 -0.00120456051255425 0.00134848200941949 
                -0.0910176977031202 -0.134970028562138 -0.0916619526108588 -0.135851766838093 0.0112437156192968 -0.334300817274419 0.804690335824251 0.214207890848564 
                0.0113510393448272 -0.33420506792428 0.000354335710117373 0.00433714900959524 -0.00153842453027713 0.000983643747691206 -0.00204029649167603 0.000559815808570161 
                -0.00121394018683188 0.00069168668196141 0.00100141899122418 0.00351494939469343 
                0.0128128879689566 -0.334364158758148 -0.0925374772649807 -0.135585439408922 -0.0937829568035816 -0.136126990480945 0.0113506653589548 -0.334204537897452 
                0.80663461306629 0.215753929709882 0.00650823442441332 0.00388648377110011 0.00211863334084849 0.000311188037821639 -0.000416328094825114 0.00153700285554783 
                0.00129750995443633 0.00265809941891399 0.00626948854511221 0.00470474836437511 
                0.010586043297741 0.00630358321307311 0.00678733388406721 0.00485823326441234 0.000594862855165235 0.00372957839371143 0.00035408431071556 0.00433573725143244 
                0.0065084769633246 0.00388566717421474 0.805447887432657 0.215498711250703 0.0114827320945243 -0.334356667711616 -0.0920008415182018 -0.134889904140116 
                -0.0922292298465791 -0.135264572112375 0.010399606381868 -0.33430284261593 
                0.00645247213367693 0.00515732143175169 0.00551354561153589 0.00516056160671035 0.000821232795158934 0.00257433237627074 -0.00153838840990024 0.000982464366021907 
                0.00211955128061017 0.000310620587745759 0.0114831268095178 -0.334355147635951 0.804558703453442 0.21406014326896 0.00943806369710698 -0.334711156252804 
                -0.0933364855742028 -0.136261437185464 -0.0922250203242839 -0.136113264736201 
                0.00192424269346434 0.00447224039509431 0.00107946196381699 0.00317544533930928 -0.00193148651724938 0.000873984741801029 -0.00204087916672248 0.000558846402281248 
                -0.000416736423019228 0.00153670102724889 -0.0919979442311057 -0.13488923213621 0.00943821245318222 -0.33470995425518 0.80481627046591 0.211890875195528 
                0.0110294361283649 -0.33436765514063 -0.0923334066735176 -0.1351877857852 
                0.0011095854291121 0.00451500160695071 -0.00105467437076875 0.0016392067401106 -0.00292662428488207 0.000298289460087834 -0.00121317570845032 0.00069233152003682 
                0.00129889836264859 0.00265935184260614 -0.0922274564518386 -0.135265716850529 -0.093336421771225 -0.136262370918588 0.0110310284533157 -0.334367271197723 
                0.805206234722329 0.215971141264087 0.0103292849874795 -0.334777532506054 
                0.00758769991233117 0.00542998337300138 0.00310818562788424 0.000859785971301611 -0.00120663991901774 0.00134606799863121 0.00100042321494236 0.00351394464713837 
                0.00626903228897684 0.0047039419529518 0.0104008320830575 -0.334302862374441 -0.0922251891113106 -0.136114619240593 -0.0923329600988839 -0.135186841751902 
                0.0103307974963783 -0.334775980679708 0.804856177938266 0.211530242840786 

0.12                           0.825887964153497 -0.0766777232776057 -0.109698990355588 -0.309304587791826 -0.132326669337475 -0.0865921485019848 -0.132237394843867 -0.0867934743884821 
                -0.109157841714712 -0.31063150795931 0.020187108480927 -0.00253857514767722 0.0146789471510267 -0.000626121712416848 0.00842057000207941 0.00470215647377629 
                0.00769177386523361 0.00509070720776745 0.0142007415723906 -0.000609506575059263 
                -0.10969683156263 -0.309305624769452 0.826043729203197 -0.0763920264446548 -0.10825032839644 -0.309711472710527 -0.132744780960887 -0.0873652701846028 
                -0.132388441268548 -0.0865247633989859 0.0131266985578851 -0.0014149770881773 0.0119494812290953 0.0006236031278825 0.00547160464613077 0.00310666986578283 
                0.00207489531005661 0.0031964373866279 0.0054602158251192 -0.00181850203280472 
                -0.132327217284326 -0.0865909023658875 -0.108251324487216 -0.30970991780041 0.830511257130936 -0.0777765542600866 -0.107986791264585 -0.30984890585814 
                -0.132997536051188 -0.0870671717542151 0.00657426397495328 0.00514974058768154 0.00526138910284917 0.00400396744764024 9.65158033290614E-06 0.00481588187083523 
                -0.00126442121513358 0.0046336593357921 0.0015868817715477 0.00371830959417501 
                -0.132236528473552 -0.086793343697525 -0.132744781428584 -0.0873668919574907 -0.107985553543272 -0.309849732018483 0.826521269466982 -0.0755301663931458 
                -0.1085713442014 -0.309850390621568 0.00828744576018792 0.00409661529208928 0.00312003246560969 0.00314033922356905 -6.69625112160958E-05 0.00452281649438665 
                0.000713444666124124 0.00345194286537957 0.00549111532520272 0.00257036068534633 
                -0.109156342086986 -0.310631235473835 -0.132390353240418 -0.086525038294034 -0.132998116082254 -0.0870673285968749 -0.108573100395981 -0.30984814248638 
                0.82715501937344 -0.0787527419271644 0.0136439395222204 -0.000802591877954992 0.00655887074408841 -0.00134260947125319 0.00318988847768312 0.00372251271913138 
                0.00580846503853042 0.00347936516699007 0.0116672839246822 0.00051375700904234 
                0.0201885025974877 -0.00253678676773711 0.0131275881250232 -0.00141522938740439 0.00657215824177082 0.00515163876471759 0.00828733194945772 0.00409582780067376 
                0.0136441392957115 -0.000801825041242071 0.825689652724819 -0.0757877081386387 -0.109837279679882 -0.309598628872975 -0.132883325844983 -0.0867094007122474 
                -0.132418255528161 -0.0860178444034278 -0.109940774321199 -0.307977517205524 
                0.0146789526263519 -0.000624169821848008 0.0119482692101933 0.000624337807199102 0.00525872811552748 0.0040057601824417 0.00311942676932525 0.00314033914876493 
                0.0065587641112267 -0.00134135263385384 -0.109837975066132 -0.30959820783438 0.826980758760098 -0.0768535850041599 -0.108879348194896 -0.30846671385508 
                -0.132868548811863 -0.0863822435752903 -0.132563590715852 -0.08640793894146 
                0.00842095159064159 0.00470392256230125 0.00547127503822846 0.00310606063013108 9.30543896162511E-06 0.00481579593404616 -6.76102756323868E-05 0.00452229754260327 
                0.00319105471988507 0.00372342556419374 -0.13288259615079 -0.0867102309961634 -0.10887728576886 -0.308467872810997 0.827086703165706 -0.0773091252687531 
                -0.108022315348661 -0.308910205788364 -0.133042675916616 -0.0862159753271746 
                0.00769350282063048 0.00509256697764984 0.00207582161998511 0.00319589542784703 -0.00126527208043584 0.00463545443311872 0.000713691794086303 0.00345257721956637 
                0.00581019351908035 0.0034794159948288 -0.13241784732938 -0.08601939577865 -0.132867708994767 -0.0863833084037529 -0.108022181336323 -0.30890935015752 
                0.828999272732198 -0.074997062381151 -0.108250495127116 -0.307985205638057 
                0.014201896131394 -0.000606812889479369 0.00546035371344783 -0.00181824608119583 0.00158543332288397 0.00372076930695767 0.0056584397992481 0.00267645767397429 
                0.0116676741341795 0.000514342597737388 -0.109940627675539 -0.30797779274618 -0.132562098523666 -0.086408113931961 -0.133042476437689 -0.0862156056094507 
                -0.108248937179079 -0.307984958684593 0.827358169293222 -0.0773893271017207 

0.14                           0.733641462770888 -0.319205551209847 -0.221978683541746 -0.233922222211572 -0.166411996922612 -0.0168992060830553 -0.167012351771062 -0.0167182428872471 
                -0.223644056851748 -0.234155016502958 0.0218352977291359 -0.0294394532415879 0.0161693179039422 -0.0214319241549529 0.0158681124158834 -0.00945671341243404 
                0.0157749581313852 -0.00927426849180733 0.0161114686640503 -0.0210335243924937 
                -0.221979456155023 -0.233923061597479 0.736931108154069 -0.322733158233135 -0.221260035437751 -0.236158861680275 -0.16667218876644 -0.0172612021798073 
                -0.165961763168878 -0.017282583220358 0.0147917913814635 -0.020349242587097 0.0134799598420575 -0.0156125768945405 0.0111496357366962 -0.00657759973043288 
                0.00814044318590465 -0.0047581148246343 0.00635879002436476 -0.0135391635557461 
                -0.166411625381771 -0.0168986165501068 -0.221258996159712 -0.236157406450118 0.736572749669926 -0.329764313702029 -0.222492770228379 -0.237970462966212 
                -0.166785206834791 -0.0183952033117472 0.0158462709815492 -0.00865863971294642 0.0132231844006599 -0.00696632830453479 0.00988609606686677 0.000471817307622531 
                0.00832643425626715 0.00180251396069329 0.00939160886721691 -0.00368650504818231 
                -0.167013038016296 -0.0167176692172138 -0.166672284645175 -0.0172622667976921 -0.222490849176848 -0.237973799636609 0.735557619164916 -0.32539130876333 
                -0.223304853159629 -0.236947983820967 0.0137394384387531 -0.00927572612200381 0.00818991912209575 -0.00569545969593579 0.00738744752854679 0.000776684463567524 
                0.00739220843349239 -0.000609432153564612 0.0100173912639569 -0.00686641726228983 
                -0.223644146685218 -0.23415569641641 -0.16596204971781 -0.0172820450190269 -0.166641920897203 -0.0182614674740601 -0.223301665598369 -0.236945839790203 
                0.73338057618069 -0.325053167911231 0.0154686326134566 -0.0211164759941116 0.00740549791719854 -0.0150659548187836 0.00926196879972193 -0.00515646701130457 
                0.0116729224655704 -0.007163517405278 0.0138996708227  -0.015704483364886 
                0.0218380600850654 -0.029438603768008 0.0147914620378867 -0.0203490022570056 0.0158500468254888 -0.00865734484088468 0.0137384841320831 -0.00927590860335659 
                0.0154708219400669 -0.0211170546744533 0.736519976487277 -0.320122705406714 -0.221749283680719 -0.234420870954199 -0.167151932840557 -0.0166817962876131 
                -0.166388738194889 -0.0164808061169919 -0.221427703755156 -0.233639548385084 